VARIABLES = "powerdemand", "mach", "altitude", "drag", 
ZONE T = "FCmapR2_Drag", I = 26, J = 4, K = 5 
272.516981	0.240000	-1	0.000000	1.000000	
313.243385	0.240000	-1	0.000000	1.000000	
353.887645	0.240000	-1	0.000000	1.000000	
394.422824	0.240000	-1	0.000000	1.000000	
434.852695	0.240000	-1	0.000000	1.000000	
475.158382	0.240000	-1	0.000000	1.000000	
515.325483	0.240000	-1	0.000000	1.000000	
555.350386	0.240000	-1	0.000000	1.000000	
595.208330	0.240000	-1	0.000000	1.000000	
634.885897	0.240000	-1	0.000000	1.000000	
674.374425	0.240000	-1	0.000000	1.000000	
713.656240	0.240000	-1	0.000000	1.000000	
752.703153	0.240000	-1	0.000000	1.000000	
791.499045	0.240000	-1	0.000000	1.000000	
830.026954	0.240000	-1	0.000000	1.000000	
868.262400	0.240000	-1	0.000000	1.000000	
906.178090	0.240000	-1	0.000000	1.000000	
943.743141	0.240000	-1	0.000000	1.000000	
980.921916	0.240000	-1	0.000000	1.000000	
1017.672335	0.240000	-1	0.000000	1.000000	
1053.943310	0.240000	-1	0.000000	1.000000	
1089.670847	0.240000	-1	0.000000	1.000000	
1124.748835	0.240000	-1	0.000000	1.000000	
1159.047698	0.240000	-1	0.000000	1.000000	
1192.389172	0.240000	-1	0.000000	1.000000	
1224.390223	0.240000	-1	0.000000	1.000000	
272.971354	0.400000	-1	0.000000	1.000000	
313.775406	0.400000	-1	0.000000	1.000000	
354.499910	0.400000	-1	0.000000	1.000000	
395.117958	0.400000	-1	0.000000	1.000000	
435.634426	0.400000	-1	0.000000	1.000000	
476.029396	0.400000	-1	0.000000	1.000000	
516.290556	0.400000	-1	0.000000	1.000000	
556.413560	0.400000	-1	0.000000	1.000000	
596.372696	0.400000	-1	0.000000	1.000000	
636.157620	0.400000	-1	0.000000	1.000000	
675.758518	0.400000	-1	0.000000	1.000000	
715.158069	0.400000	-1	0.000000	1.000000	
754.326166	0.400000	-1	0.000000	1.000000	
793.251606	0.400000	-1	0.000000	1.000000	
831.915516	0.400000	-1	0.000000	1.000000	
870.293845	0.400000	-1	0.000000	1.000000	
908.359778	0.400000	-1	0.000000	1.000000	
946.082975	0.400000	-1	0.000000	1.000000	
983.428447	0.400000	-1	0.000000	1.000000	
1020.354901	0.400000	-1	0.000000	1.000000	
1056.812250	0.400000	-1	0.000000	1.000000	
1092.737815	0.400000	-1	0.000000	1.000000	
1128.035649	0.400000	-1	0.000000	1.000000	
1162.564504	0.400000	-1	0.000000	1.000000	
1196.169658	0.400000	-1	0.000000	1.000000	
1228.455247	0.400000	-1	0.000000	1.000000	
273.809559	0.600000	-1	0.000000	1.000000	
314.757097	0.600000	-1	0.000000	1.000000	
355.629756	0.600000	-1	0.000000	1.000000	
396.401416	0.600000	-1	0.000000	1.000000	
437.078305	0.600000	-1	0.000000	1.000000	
477.638850	0.600000	-1	0.000000	1.000000	
518.074633	0.600000	-1	0.000000	1.000000	
558.379971	0.600000	-1	0.000000	1.000000	
598.527431	0.600000	-1	0.000000	1.000000	
638.512412	0.600000	-1	0.000000	1.000000	
678.322994	0.600000	-1	0.000000	1.000000	
717.941169	0.600000	-1	0.000000	1.000000	
757.337417	0.600000	-1	0.000000	1.000000	
796.505651	0.600000	-1	0.000000	1.000000	
835.424836	0.600000	-1	0.000000	1.000000	
874.071774	0.600000	-1	0.000000	1.000000	
912.420594	0.600000	-1	0.000000	1.000000	
950.442036	0.600000	-1	0.000000	1.000000	
988.102377	0.600000	-1	0.000000	1.000000	
1025.361870	0.600000	-1	0.000000	1.000000	
1062.172382	0.600000	-1	0.000000	1.000000	
1098.473792	0.600000	-1	0.000000	1.000000	
1134.188326	0.600000	-1	0.000000	1.000000	
1169.156482	0.600000	-1	0.000000	1.000000	
1203.248777	0.600000	-1	0.000000	1.000000	
1236.093902	0.600000	-1	0.000000	1.000000	
274.937763	0.810000	-1	0.000000	1.000000	
316.078922	0.810000	-1	0.000000	1.000000	
357.150580	0.810000	-1	0.000000	1.000000	
398.131198	0.810000	-1	0.000000	1.000000	
439.025390	0.810000	-1	0.000000	1.000000	
479.810617	0.810000	-1	0.000000	1.000000	
520.483735	0.810000	-1	0.000000	1.000000	
561.036989	0.810000	-1	0.000000	1.000000	
601.441746	0.810000	-1	0.000000	1.000000	
641.700211	0.810000	-1	0.000000	1.000000	
681.798040	0.810000	-1	0.000000	1.000000	
721.712339	0.810000	-1	0.000000	1.000000	
761.426609	0.810000	-1	0.000000	1.000000	
800.929737	0.810000	-1	0.000000	1.000000	
840.201878	0.810000	-1	0.000000	1.000000	
879.221118	0.810000	-1	0.000000	1.000000	
917.963012	0.810000	-1	0.000000	1.000000	
956.399916	0.810000	-1	0.000000	1.000000	
994.500000	0.810000	-1	0.000000	1.000000	
1032.225809	0.810000	-1	0.000000	1.000000	
1069.532091	0.810000	-1	0.000000	1.000000	
1106.362466	0.810000	-1	0.000000	1.000000	
1142.644210	0.810000	-1	0.000000	1.000000	
1178.254848	0.810000	-1	0.000000	1.000000	
1213.025874	0.810000	-1	0.000000	1.000000	
1246.679305	0.810000	-1	0.000000	1.000000	
269.406715	0.240000	10000	0.000000	1.000000	
309.603263	0.240000	10000	0.000000	1.000000	
349.699820	0.240000	10000	0.000000	1.000000	
389.669113	0.240000	10000	0.000000	1.000000	
429.508750	0.240000	10000	0.000000	1.000000	
469.205357	0.240000	10000	0.000000	1.000000	
508.732268	0.240000	10000	0.000000	1.000000	
548.090061	0.240000	10000	0.000000	1.000000	
587.258653	0.240000	10000	0.000000	1.000000	
626.207026	0.240000	10000	0.000000	1.000000	
664.932844	0.240000	10000	0.000000	1.000000	
703.416049	0.240000	10000	0.000000	1.000000	
741.635002	0.240000	10000	0.000000	1.000000	
779.555719	0.240000	10000	0.000000	1.000000	
817.161714	0.240000	10000	0.000000	1.000000	
854.428706	0.240000	10000	0.000000	1.000000	
891.326028	0.240000	10000	0.000000	1.000000	
927.818923	0.240000	10000	0.000000	1.000000	
963.867182	0.240000	10000	0.000000	1.000000	
999.423141	0.240000	10000	0.000000	1.000000	
1034.428671	0.240000	10000	0.000000	1.000000	
1068.792259	0.240000	10000	0.000000	1.000000	
1102.405161	0.240000	10000	0.000000	1.000000	
1135.140145	0.240000	10000	0.000000	1.000000	
1166.706110	0.240000	10000	0.000000	1.000000	
1196.714290	0.240000	10000	0.000000	1.000000	
269.917856	0.400000	10000	0.000000	1.000000	
310.200766	0.400000	10000	0.000000	1.000000	
350.386702	0.400000	10000	0.000000	1.000000	
390.447988	0.400000	10000	0.000000	1.000000	
430.383422	0.400000	10000	0.000000	1.000000	
470.178433	0.400000	10000	0.000000	1.000000	
509.808553	0.400000	10000	0.000000	1.000000	
549.273527	0.400000	10000	0.000000	1.000000	
588.552204	0.400000	10000	0.000000	1.000000	
627.616751	0.400000	10000	0.000000	1.000000	
666.463566	0.400000	10000	0.000000	1.000000	
705.072893	0.400000	10000	0.000000	1.000000	
743.423405	0.400000	10000	0.000000	1.000000	
781.479083	0.400000	10000	0.000000	1.000000	
819.228427	0.400000	10000	0.000000	1.000000	
856.645191	0.400000	10000	0.000000	1.000000	
893.699124	0.400000	10000	0.000000	1.000000	
930.355948	0.400000	10000	0.000000	1.000000	
966.576036	0.400000	10000	0.000000	1.000000	
1002.312442	0.400000	10000	0.000000	1.000000	
1037.507963	0.400000	10000	0.000000	1.000000	
1072.078652	0.400000	10000	0.000000	1.000000	
1105.906459	0.400000	10000	0.000000	1.000000	
1138.871964	0.400000	10000	0.000000	1.000000	
1170.700226	0.400000	10000	0.000000	1.000000	
1201.006709	0.400000	10000	0.000000	1.000000	
270.868991	0.600000	10000	0.000000	1.000000	
311.313451	0.600000	10000	0.000000	1.000000	
351.666210	0.600000	10000	0.000000	1.000000	
391.899346	0.600000	10000	0.000000	1.000000	
432.013914	0.600000	10000	0.000000	1.000000	
471.993109	0.600000	10000	0.000000	1.000000	
511.816649	0.600000	10000	0.000000	1.000000	
551.482725	0.600000	10000	0.000000	1.000000	
590.968173	0.600000	10000	0.000000	1.000000	
630.251253	0.600000	10000	0.000000	1.000000	
669.325979	0.600000	10000	0.000000	1.000000	
708.173199	0.600000	10000	0.000000	1.000000	
746.768625	0.600000	10000	0.000000	1.000000	
785.083120	0.600000	10000	0.000000	1.000000	
823.104017	0.600000	10000	0.000000	1.000000	
860.804918	0.600000	10000	0.000000	1.000000	
898.156399	0.600000	10000	0.000000	1.000000	
935.125137	0.600000	10000	0.000000	1.000000	
971.672646	0.600000	10000	0.000000	1.000000	
1007.753395	0.600000	10000	0.000000	1.000000	
1043.311997	0.600000	10000	0.000000	1.000000	
1078.278906	0.600000	10000	0.000000	1.000000	
1112.518986	0.600000	10000	0.000000	1.000000	
1145.926971	0.600000	10000	0.000000	1.000000	
1178.259775	0.600000	10000	0.000000	1.000000	
1209.141034	0.600000	10000	0.000000	1.000000	
272.167640	0.810000	10000	0.000000	1.000000	
312.833600	0.810000	10000	0.000000	1.000000	
353.415081	0.810000	10000	0.000000	1.000000	
393.884173	0.810000	10000	0.000000	1.000000	
434.245066	0.810000	10000	0.000000	1.000000	
474.477931	0.810000	10000	0.000000	1.000000	
514.568370	0.810000	10000	0.000000	1.000000	
554.512454	0.810000	10000	0.000000	1.000000	
594.284280	0.810000	10000	0.000000	1.000000	
633.870716	0.810000	10000	0.000000	1.000000	
673.262494	0.810000	10000	0.000000	1.000000	
712.441385	0.810000	10000	0.000000	1.000000	
751.377689	0.810000	10000	0.000000	1.000000	
790.055939	0.810000	10000	0.000000	1.000000	
828.458075	0.810000	10000	0.000000	1.000000	
866.558829	0.810000	10000	0.000000	1.000000	
904.330039	0.810000	10000	0.000000	1.000000	
941.739831	0.810000	10000	0.000000	1.000000	
978.751434	0.810000	10000	0.000000	1.000000	
1015.321433	0.810000	10000	0.000000	1.000000	
1051.397134	0.810000	10000	0.000000	1.000000	
1086.912542	0.810000	10000	0.000000	1.000000	
1121.760232	0.810000	10000	0.000000	1.000000	
1155.802991	0.810000	10000	0.000000	1.000000	
1188.861967	0.810000	10000	0.000000	1.000000	
1220.536981	0.810000	10000	0.000000	1.000000	
265.630009	0.240000	20000	0.000000	1.000000	
305.188711	0.240000	20000	0.000000	1.000000	
344.625933	0.240000	20000	0.000000	1.000000	
383.915957	0.240000	20000	0.000000	1.000000	
423.049337	0.240000	20000	0.000000	1.000000	
462.019371	0.240000	20000	0.000000	1.000000	
500.785646	0.240000	20000	0.000000	1.000000	
539.353755	0.240000	20000	0.000000	1.000000	
577.705111	0.240000	20000	0.000000	1.000000	
615.801407	0.240000	20000	0.000000	1.000000	
653.635489	0.240000	20000	0.000000	1.000000	
691.188992	0.240000	20000	0.000000	1.000000	
728.437798	0.240000	20000	0.000000	1.000000	
765.355848	0.240000	20000	0.000000	1.000000	
801.905115	0.240000	20000	0.000000	1.000000	
838.064421	0.240000	20000	0.000000	1.000000	
873.802091	0.240000	20000	0.000000	1.000000	
909.079406	0.240000	20000	0.000000	1.000000	
943.851431	0.240000	20000	0.000000	1.000000	
978.064673	0.240000	20000	0.000000	1.000000	
1011.638262	0.240000	20000	0.000000	1.000000	
1044.481335	0.240000	20000	0.000000	1.000000	
1076.485965	0.240000	20000	0.000000	1.000000	
1107.472609	0.240000	20000	0.000000	1.000000	
1137.107225	0.240000	20000	0.000000	1.000000	
1164.903536	0.240000	20000	0.000000	1.000000	
266.188827	0.400000	20000	0.000000	1.000000	
305.841296	0.400000	20000	0.000000	1.000000	
345.375266	0.400000	20000	0.000000	1.000000	
384.764552	0.400000	20000	0.000000	1.000000	
424.000882	0.400000	20000	0.000000	1.000000	
463.076315	0.400000	20000	0.000000	1.000000	
501.952574	0.400000	20000	0.000000	1.000000	
540.634391	0.400000	20000	0.000000	1.000000	
579.103420	0.400000	20000	0.000000	1.000000	
617.320439	0.400000	20000	0.000000	1.000000	
655.280991	0.400000	20000	0.000000	1.000000	
692.965638	0.400000	20000	0.000000	1.000000	
730.350519	0.400000	20000	0.000000	1.000000	
767.409843	0.400000	20000	0.000000	1.000000	
804.103590	0.400000	20000	0.000000	1.000000	
840.415340	0.400000	20000	0.000000	1.000000	
876.311559	0.400000	20000	0.000000	1.000000	
911.753950	0.400000	20000	0.000000	1.000000	
946.698090	0.400000	20000	0.000000	1.000000	
981.091135	0.400000	20000	0.000000	1.000000	
1014.857685	0.400000	20000	0.000000	1.000000	
1047.899829	0.400000	20000	0.000000	1.000000	
1080.115228	0.400000	20000	0.000000	1.000000	
1111.334375	0.400000	20000	0.000000	1.000000	
1141.215238	0.400000	20000	0.000000	1.000000	
1169.298328	0.400000	20000	0.000000	1.000000	
267.239014	0.600000	20000	0.000000	1.000000	
307.067998	0.600000	20000	0.000000	1.000000	
346.784238	0.600000	20000	0.000000	1.000000	
386.360667	0.600000	20000	0.000000	1.000000	
425.791294	0.600000	20000	0.000000	1.000000	
465.065799	0.600000	20000	0.000000	1.000000	
504.150058	0.600000	20000	0.000000	1.000000	
543.047153	0.600000	20000	0.000000	1.000000	
581.739222	0.600000	20000	0.000000	1.000000	
620.185285	0.600000	20000	0.000000	1.000000	
658.386145	0.600000	20000	0.000000	1.000000	
696.320294	0.600000	20000	0.000000	1.000000	
733.964390	0.600000	20000	0.000000	1.000000	
771.289037	0.600000	20000	0.000000	1.000000	
808.262751	0.600000	20000	0.000000	1.000000	
844.866021	0.600000	20000	0.000000	1.000000	
881.065825	0.600000	20000	0.000000	1.000000	
916.824699	0.600000	20000	0.000000	1.000000	
952.099233	0.600000	20000	0.000000	1.000000	
986.837861	0.600000	20000	0.000000	1.000000	
1020.975991	0.600000	20000	0.000000	1.000000	
1054.401727	0.600000	20000	0.000000	1.000000	
1087.023744	0.600000	20000	0.000000	1.000000	
1118.689138	0.600000	20000	0.000000	1.000000	
1149.049508	0.600000	20000	0.000000	1.000000	
1177.688573	0.600000	20000	0.000000	1.000000	
268.695150	0.810000	20000	0.000000	1.000000	
308.769552	0.810000	20000	0.000000	1.000000	
348.739522	0.810000	20000	0.000000	1.000000	
388.576790	0.810000	20000	0.000000	1.000000	
428.278664	0.810000	20000	0.000000	1.000000	
467.831453	0.810000	20000	0.000000	1.000000	
507.207067	0.810000	20000	0.000000	1.000000	
546.406250	0.810000	20000	0.000000	1.000000	
585.408320	0.810000	20000	0.000000	1.000000	
624.180492	0.810000	20000	0.000000	1.000000	
662.720559	0.810000	20000	0.000000	1.000000	
701.007624	0.810000	20000	0.000000	1.000000	
739.019147	0.810000	20000	0.000000	1.000000	
776.720163	0.810000	20000	0.000000	1.000000	
814.092684	0.810000	20000	0.000000	1.000000	
851.111815	0.810000	20000	0.000000	1.000000	
887.745616	0.810000	20000	0.000000	1.000000	
923.957886	0.810000	20000	0.000000	1.000000	
959.706741	0.810000	20000	0.000000	1.000000	
994.942526	0.810000	20000	0.000000	1.000000	
1029.604674	0.810000	20000	0.000000	1.000000	
1063.596792	0.810000	20000	0.000000	1.000000	
1096.807463	0.810000	20000	0.000000	1.000000	
1129.103128	0.810000	20000	0.000000	1.000000	
1160.178514	0.810000	20000	0.000000	1.000000	
1189.628885	0.810000	20000	0.000000	1.000000	
261.123344	0.240000	30000	0.000000	1.000000	
299.925251	0.240000	30000	0.000000	1.000000	
338.582177	0.240000	30000	0.000000	1.000000	
377.070337	0.240000	30000	0.000000	1.000000	
415.372796	0.240000	30000	0.000000	1.000000	
453.485917	0.240000	30000	0.000000	1.000000	
491.367687	0.240000	30000	0.000000	1.000000	
529.016328	0.240000	30000	0.000000	1.000000	
566.415440	0.240000	30000	0.000000	1.000000	
603.530623	0.240000	30000	0.000000	1.000000	
640.338443	0.240000	30000	0.000000	1.000000	
676.826263	0.240000	30000	0.000000	1.000000	
712.967503	0.240000	30000	0.000000	1.000000	
748.733480	0.240000	30000	0.000000	1.000000	
784.092974	0.240000	30000	0.000000	1.000000	
819.005896	0.240000	30000	0.000000	1.000000	
853.440367	0.240000	30000	0.000000	1.000000	
887.356811	0.240000	30000	0.000000	1.000000	
920.705341	0.240000	30000	0.000000	1.000000	
953.412525	0.240000	30000	0.000000	1.000000	
985.403779	0.240000	30000	0.000000	1.000000	
1016.583138	0.240000	30000	0.000000	1.000000	
1046.819259	0.240000	30000	0.000000	1.000000	
1075.866629	0.240000	30000	0.000000	1.000000	
1103.421160	0.240000	30000	0.000000	1.000000	
1128.819803	0.240000	30000	0.000000	1.000000	
261.715247	0.400000	30000	0.000000	1.000000	
300.615806	0.400000	30000	0.000000	1.000000	
339.374198	0.400000	30000	0.000000	1.000000	
377.966165	0.400000	30000	0.000000	1.000000	
416.375837	0.400000	30000	0.000000	1.000000	
454.599150	0.400000	30000	0.000000	1.000000	
492.593780	0.400000	30000	0.000000	1.000000	
530.359366	0.400000	30000	0.000000	1.000000	
567.878953	0.400000	30000	0.000000	1.000000	
605.117308	0.400000	30000	0.000000	1.000000	
642.053373	0.400000	30000	0.000000	1.000000	
678.673526	0.400000	30000	0.000000	1.000000	
714.951396	0.400000	30000	0.000000	1.000000	
750.858518	0.400000	30000	0.000000	1.000000	
786.363911	0.400000	30000	0.000000	1.000000	
821.425702	0.400000	30000	0.000000	1.000000	
856.016276	0.400000	30000	0.000000	1.000000	
890.094469	0.400000	30000	0.000000	1.000000	
923.610850	0.400000	30000	0.000000	1.000000	
956.495803	0.400000	30000	0.000000	1.000000	
988.669694	0.400000	30000	0.000000	1.000000	
1020.040460	0.400000	30000	0.000000	1.000000	
1050.478339	0.400000	30000	0.000000	1.000000	
1079.746414	0.400000	30000	0.000000	1.000000	
1107.534391	0.400000	30000	0.000000	1.000000	
1133.202259	0.400000	30000	0.000000	1.000000	
262.837647	0.600000	30000	0.000000	1.000000	
301.925552	0.600000	30000	0.000000	1.000000	
340.876773	0.600000	30000	0.000000	1.000000	
379.666136	0.600000	30000	0.000000	1.000000	
418.279874	0.600000	30000	0.000000	1.000000	
456.713098	0.600000	30000	0.000000	1.000000	
494.922879	0.600000	30000	0.000000	1.000000	
532.911665	0.600000	30000	0.000000	1.000000	
570.661418	0.600000	30000	0.000000	1.000000	
608.135261	0.600000	30000	0.000000	1.000000	
645.316847	0.600000	30000	0.000000	1.000000	
682.190621	0.600000	30000	0.000000	1.000000	
718.730627	0.600000	30000	0.000000	1.000000	
754.908840	0.600000	30000	0.000000	1.000000	
790.692147	0.600000	30000	0.000000	1.000000	
826.042935	0.600000	30000	0.000000	1.000000	
860.934275	0.600000	30000	0.000000	1.000000	
895.324433	0.600000	30000	0.000000	1.000000	
929.164876	0.600000	30000	0.000000	1.000000	
962.393617	0.600000	30000	0.000000	1.000000	
994.920846	0.600000	30000	0.000000	1.000000	
1026.662267	0.600000	30000	0.000000	1.000000	
1057.491219	0.600000	30000	0.000000	1.000000	
1087.187898	0.600000	30000	0.000000	1.000000	
1115.429307	0.600000	30000	0.000000	1.000000	
1141.621272	0.600000	30000	0.000000	1.000000	
264.417192	0.810000	30000	0.000000	1.000000	
303.769393	0.810000	30000	0.000000	1.000000	
342.992964	0.810000	30000	0.000000	1.000000	
382.061414	0.810000	30000	0.000000	1.000000	
420.964113	0.810000	30000	0.000000	1.000000	
459.694902	0.810000	30000	0.000000	1.000000	
498.210237	0.810000	30000	0.000000	1.000000	
536.516520	0.810000	30000	0.000000	1.000000	
574.594220	0.810000	30000	0.000000	1.000000	
612.404007	0.810000	30000	0.000000	1.000000	
649.936644	0.810000	30000	0.000000	1.000000	
687.173698	0.810000	30000	0.000000	1.000000	
724.089857	0.810000	30000	0.000000	1.000000	
760.657778	0.810000	30000	0.000000	1.000000	
796.839133	0.810000	30000	0.000000	1.000000	
832.608714	0.810000	30000	0.000000	1.000000	
867.934722	0.810000	30000	0.000000	1.000000	
902.776519	0.810000	30000	0.000000	1.000000	
937.086919	0.810000	30000	0.000000	1.000000	
970.809724	0.810000	30000	0.000000	1.000000	
1003.857047	0.810000	30000	0.000000	1.000000	
1036.138762	0.810000	30000	0.000000	1.000000	
1067.538682	0.810000	30000	0.000000	1.000000	
1097.863054	0.810000	30000	0.000000	1.000000	
1126.768809	0.810000	30000	0.000000	1.000000	
1153.731422	0.810000	30000	0.000000	1.000000	
253.461299	0.240000	37500	0.000000	1.000000	
290.970530	0.240000	37500	0.000000	1.000000	
328.294008	0.240000	37500	0.000000	1.000000	
365.406449	0.240000	37500	0.000000	1.000000	
402.282267	0.240000	37500	0.000000	1.000000	
438.919597	0.240000	37500	0.000000	1.000000	
475.270818	0.240000	37500	0.000000	1.000000	
511.326303	0.240000	37500	0.000000	1.000000	
547.069848	0.240000	37500	0.000000	1.000000	
582.465519	0.240000	37500	0.000000	1.000000	
617.473228	0.240000	37500	0.000000	1.000000	
652.083412	0.240000	37500	0.000000	1.000000	
686.263805	0.240000	37500	0.000000	1.000000	
719.979592	0.240000	37500	0.000000	1.000000	
753.192865	0.240000	37500	0.000000	1.000000	
785.861816	0.240000	37500	0.000000	1.000000	
817.938800	0.240000	37500	0.000000	1.000000	
849.372451	0.240000	37500	0.000000	1.000000	
880.097504	0.240000	37500	0.000000	1.000000	
910.038744	0.240000	37500	0.000000	1.000000	
939.101557	0.240000	37500	0.000000	1.000000	
967.164042	0.240000	37500	0.000000	1.000000	
994.063287	0.240000	37500	0.000000	1.000000	
1019.465526	0.240000	37500	0.000000	1.000000	
1043.044802	0.240000	37500	0.000000	1.000000	
1063.900304	0.240000	37500	0.000000	1.000000	
254.147169	0.400000	37500	0.000000	1.000000	
291.770183	0.400000	37500	0.000000	1.000000	
329.210419	0.400000	37500	0.000000	1.000000	
366.442097	0.400000	37500	0.000000	1.000000	
403.440690	0.400000	37500	0.000000	1.000000	
440.203872	0.400000	37500	0.000000	1.000000	
476.683713	0.400000	37500	0.000000	1.000000	
512.871973	0.400000	37500	0.000000	1.000000	
548.751878	0.400000	37500	0.000000	1.000000	
584.286678	0.400000	37500	0.000000	1.000000	
619.438601	0.400000	37500	0.000000	1.000000	
654.197108	0.400000	37500	0.000000	1.000000	
688.530131	0.400000	37500	0.000000	1.000000	
722.403068	0.400000	37500	0.000000	1.000000	
755.778247	0.400000	37500	0.000000	1.000000	
788.614133	0.400000	37500	0.000000	1.000000	
820.861302	0.400000	37500	0.000000	1.000000	
852.473803	0.400000	37500	0.000000	1.000000	
883.384390	0.400000	37500	0.000000	1.000000	
913.516785	0.400000	37500	0.000000	1.000000	
942.778509	0.400000	37500	0.000000	1.000000	
971.048852	0.400000	37500	0.000000	1.000000	
998.166576	0.400000	37500	0.000000	1.000000	
1023.806358	0.400000	37500	0.000000	1.000000	
1047.636827	0.400000	37500	0.000000	1.000000	
1068.779905	0.400000	37500	0.000000	1.000000	
255.455724	0.600000	37500	0.000000	1.000000	
293.296097	0.600000	37500	0.000000	1.000000	
330.959519	0.600000	37500	0.000000	1.000000	
368.419230	0.600000	37500	0.000000	1.000000	
405.652818	0.600000	37500	0.000000	1.000000	
442.657061	0.600000	37500	0.000000	1.000000	
479.383404	0.600000	37500	0.000000	1.000000	
515.826395	0.600000	37500	0.000000	1.000000	
551.968129	0.600000	37500	0.000000	1.000000	
587.770216	0.600000	37500	0.000000	1.000000	
623.199537	0.600000	37500	0.000000	1.000000	
658.243601	0.600000	37500	0.000000	1.000000	
692.870736	0.600000	37500	0.000000	1.000000	
727.046767	0.600000	37500	0.000000	1.000000	
760.734492	0.600000	37500	0.000000	1.000000	
793.891050	0.600000	37500	0.000000	1.000000	
826.468998	0.600000	37500	0.000000	1.000000	
858.425617	0.600000	37500	0.000000	1.000000	
889.697814	0.600000	37500	0.000000	1.000000	
920.200785	0.600000	37500	0.000000	1.000000	
949.848429	0.600000	37500	0.000000	1.000000	
978.522364	0.600000	37500	0.000000	1.000000	
1006.064626	0.600000	37500	0.000000	1.000000	
1032.166770	0.600000	37500	0.000000	1.000000	
1056.486179	0.600000	37500	0.000000	1.000000	
1078.190167	0.600000	37500	0.000000	1.000000	
257.316258	0.810000	37500	0.000000	1.000000	
295.466335	0.810000	37500	0.000000	1.000000	
333.448101	0.810000	37500	0.000000	1.000000	
371.233339	0.810000	37500	0.000000	1.000000	
408.802862	0.810000	37500	0.000000	1.000000	
446.152127	0.810000	37500	0.000000	1.000000	
483.231632	0.810000	37500	0.000000	1.000000	
520.040204	0.810000	37500	0.000000	1.000000	
556.558239	0.810000	37500	0.000000	1.000000	
592.744833	0.810000	37500	0.000000	1.000000	
628.574017	0.810000	37500	0.000000	1.000000	
664.030329	0.810000	37500	0.000000	1.000000	
699.082710	0.810000	37500	0.000000	1.000000	
733.697643	0.810000	37500	0.000000	1.000000	
767.838646	0.810000	37500	0.000000	1.000000	
801.457528	0.810000	37500	0.000000	1.000000	
834.519624	0.810000	37500	0.000000	1.000000	
866.977473	0.810000	37500	0.000000	1.000000	
898.772827	0.810000	37500	0.000000	1.000000	
929.821973	0.810000	37500	0.000000	1.000000	
960.034144	0.810000	37500	0.000000	1.000000	
989.299238	0.810000	37500	0.000000	1.000000	
1017.464153	0.810000	37500	0.000000	1.000000	
1044.246325	0.810000	37500	0.000000	1.000000	
1069.284935	0.810000	37500	0.000000	1.000000	
1091.816763	0.810000	37500	0.000000	1.000000	
