VARIABLES = "powerdemand", "mach", "altitude", "efficiency", 
ZONE T = "FCmapR2_Drag", I = 26, J = 4, K = 5 
237.167239	0.240000	-1	0.602583	1.000000	
272.517582	0.240000	-1	0.594296	1.000000	
307.752347	0.240000	-1	0.586407	1.000000	
342.857166	0.240000	-1	0.578799	1.000000	
377.816473	0.240000	-1	0.571388	1.000000	
412.613544	0.240000	-1	0.564111	1.000000	
447.230516	0.240000	-1	0.556918	1.000000	
481.640331	0.240000	-1	0.549768	1.000000	
515.825941	0.240000	-1	0.542623	1.000000	
549.766986	0.240000	-1	0.535451	1.000000	
583.433164	0.240000	-1	0.528220	1.000000	
616.789073	0.240000	-1	0.520894	1.000000	
649.817007	0.240000	-1	0.513443	1.000000	
682.454985	0.240000	-1	0.505816	1.000000	
714.680681	0.240000	-1	0.497972	1.000000	
746.427663	0.240000	-1	0.489843	1.000000	
777.621864	0.240000	-1	0.481338	1.000000	
808.179697	0.240000	-1	0.472343	1.000000	
837.968400	0.240000	-1	0.462677	1.000000	
866.791531	0.240000	-1	0.452053	1.000000	
894.285807	0.240000	-1	0.439936	1.000000	
919.759032	0.240000	-1	0.425255	1.000000	
941.105961	0.240000	-1	0.404718	1.000000	
NaN	0.240000	-1	NaN	1.000000	
NaN	0.240000	-1	NaN	1.000000	
NaN	0.240000	-1	NaN	1.000000	
237.618556	0.400000	-1	0.604471	1.000000	
273.047821	0.400000	-1	0.596193	1.000000	
308.365007	0.400000	-1	0.588313	1.000000	
343.556092	0.400000	-1	0.580716	1.000000	
378.605869	0.400000	-1	0.573316	1.000000	
413.497992	0.400000	-1	0.566051	1.000000	
448.214983	0.400000	-1	0.558870	1.000000	
482.731871	0.400000	-1	0.551734	1.000000	
517.029141	0.400000	-1	0.544603	1.000000	
551.088109	0.400000	-1	0.537447	1.000000	
584.881351	0.400000	-1	0.530232	1.000000	
618.369799	0.400000	-1	0.522923	1.000000	
651.539515	0.400000	-1	0.515490	1.000000	
684.328585	0.400000	-1	0.507883	1.000000	
716.716986	0.400000	-1	0.500062	1.000000	
748.633739	0.400000	-1	0.491955	1.000000	
780.014622	0.400000	-1	0.483477	1.000000	
810.774154	0.400000	-1	0.474514	1.000000	
840.782807	0.400000	-1	0.464885	1.000000	
869.849187	0.400000	-1	0.454308	1.000000	
897.632327	0.400000	-1	0.442266	1.000000	
923.459037	0.400000	-1	0.427703	1.000000	
945.356868	0.400000	-1	0.407477	1.000000	
NaN	0.400000	-1	NaN	1.000000	
NaN	0.400000	-1	NaN	1.000000	
NaN	0.400000	-1	NaN	1.000000	
238.451180	0.600000	-1	0.608074	1.000000	
274.026354	0.600000	-1	0.599814	1.000000	
309.496061	0.600000	-1	0.591954	1.000000	
344.846949	0.600000	-1	0.584377	1.000000	
380.064518	0.600000	-1	0.576999	1.000000	
415.133154	0.600000	-1	0.569758	1.000000	
450.036137	0.600000	-1	0.562602	1.000000	
484.752426	0.600000	-1	0.555492	1.000000	
519.257973	0.600000	-1	0.548391	1.000000	
553.537246	0.600000	-1	0.541264	1.000000	
587.567989	0.600000	-1	0.534083	1.000000	
621.305191	0.600000	-1	0.526808	1.000000	
654.738322	0.600000	-1	0.519411	1.000000	
687.814512	0.600000	-1	0.511845	1.000000	
720.509615	0.600000	-1	0.504069	1.000000	
752.746958	0.600000	-1	0.496006	1.000000	
784.481076	0.600000	-1	0.487585	1.000000	
815.622999	0.600000	-1	0.478686	1.000000	
846.049456	0.600000	-1	0.469132	1.000000	
875.578795	0.600000	-1	0.458648	1.000000	
903.912907	0.600000	-1	0.446758	1.000000	
930.408606	0.600000	-1	0.432429	1.000000	
953.290359	0.600000	-1	0.412718	1.000000	
NaN	0.600000	-1	NaN	1.000000	
NaN	0.600000	-1	NaN	1.000000	
NaN	0.600000	-1	NaN	1.000000	
239.400012	0.780000	-1	0.612398	1.000000	
275.141940	0.780000	-1	0.604160	1.000000	
310.786191	0.780000	-1	0.596324	1.000000	
346.320231	0.780000	-1	0.588773	1.000000	
381.730424	0.780000	-1	0.581424	1.000000	
417.002062	0.780000	-1	0.574212	1.000000	
452.119360	0.780000	-1	0.567089	1.000000	
487.065428	0.780000	-1	0.560013	1.000000	
521.812456	0.780000	-1	0.552948	1.000000	
556.347262	0.780000	-1	0.545860	1.000000	
590.649109	0.780000	-1	0.538719	1.000000	
624.681274	0.780000	-1	0.531489	1.000000	
658.422203	0.780000	-1	0.524139	1.000000	
691.834784	0.780000	-1	0.516625	1.000000	
724.881339	0.780000	-1	0.508902	1.000000	
757.505165	0.780000	-1	0.500903	1.000000	
789.656537	0.780000	-1	0.492554	1.000000	
821.251424	0.780000	-1	0.483737	1.000000	
852.174202	0.780000	-1	0.474283	1.000000	
882.255068	0.780000	-1	0.463920	1.000000	
911.223901	0.780000	-1	0.452197	1.000000	
938.501527	0.780000	-1	0.438139	1.000000	
962.574159	0.780000	-1	0.419110	1.000000	
NaN	0.780000	-1	NaN	1.000000	
NaN	0.780000	-1	NaN	1.000000	
NaN	0.780000	-1	NaN	1.000000	
234.073266	0.240000	10000	0.591270	1.000000	
268.883690	0.240000	10000	0.582927	1.000000	
303.555019	0.240000	10000	0.574975	1.000000	
338.070588	0.240000	10000	0.567298	1.000000	
372.412396	0.240000	10000	0.559813	1.000000	
406.561189	0.240000	10000	0.552455	1.000000	
440.491092	0.240000	10000	0.545176	1.000000	
474.178809	0.240000	10000	0.537933	1.000000	
507.604586	0.240000	10000	0.530689	1.000000	
540.743530	0.240000	10000	0.523411	1.000000	
573.548580	0.240000	10000	0.516064	1.000000	
606.003675	0.240000	10000	0.508617	1.000000	
638.061578	0.240000	10000	0.501032	1.000000	
669.683039	0.240000	10000	0.493268	1.000000	
700.807749	0.240000	10000	0.485268	1.000000	
731.386214	0.240000	10000	0.476974	1.000000	
761.330421	0.240000	10000	0.468292	1.000000	
790.522734	0.240000	10000	0.459088	1.000000	
818.822356	0.240000	10000	0.449181	1.000000	
845.967815	0.240000	10000	0.438242	1.000000	
871.557435	0.240000	10000	0.425728	1.000000	
894.679349	0.240000	10000	0.410404	1.000000	
912.477012	0.240000	10000	0.388325	1.000000	
NaN	0.240000	10000	NaN	1.000000	
NaN	0.240000	10000	NaN	1.000000	
NaN	0.240000	10000	NaN	1.000000	
234.580634	0.400000	10000	0.593144	1.000000	
269.479070	0.400000	10000	0.584808	1.000000	
304.241985	0.400000	10000	0.576865	1.000000	
338.853026	0.400000	10000	0.569197	1.000000	
373.294519	0.400000	10000	0.561721	1.000000	
407.547548	0.400000	10000	0.554373	1.000000	
441.587913	0.400000	10000	0.547105	1.000000	
475.390423	0.400000	10000	0.539874	1.000000	
508.936656	0.400000	10000	0.532641	1.000000	
542.202077	0.400000	10000	0.525376	1.000000	
575.142491	0.400000	10000	0.518043	1.000000	
607.737976	0.400000	10000	0.510611	1.000000	
639.946599	0.400000	10000	0.503042	1.000000	
671.724466	0.400000	10000	0.495293	1.000000	
703.018059	0.400000	10000	0.487312	1.000000	
733.776004	0.400000	10000	0.479038	1.000000	
763.907191	0.400000	10000	0.470376	1.000000	
793.304707	0.400000	10000	0.461198	1.000000	
821.826590	0.400000	10000	0.451321	1.000000	
849.225198	0.400000	10000	0.440426	1.000000	
875.093243	0.400000	10000	0.427962	1.000000	
898.564149	0.400000	10000	0.412730	1.000000	
916.899874	0.400000	10000	0.390889	1.000000	
NaN	0.400000	10000	NaN	1.000000	
NaN	0.400000	10000	NaN	1.000000	
NaN	0.400000	10000	NaN	1.000000	
235.525346	0.600000	10000	0.596731	1.000000	
270.588021	0.600000	10000	0.588411	1.000000	
305.522011	0.600000	10000	0.580484	1.000000	
340.311580	0.600000	10000	0.572834	1.000000	
374.939705	0.600000	10000	0.565377	1.000000	
409.388135	0.600000	10000	0.558050	1.000000	
443.635886	0.600000	10000	0.550804	1.000000	
477.654218	0.600000	10000	0.543595	1.000000	
511.427258	0.600000	10000	0.536387	1.000000	
544.931193	0.600000	10000	0.529148	1.000000	
578.127362	0.600000	10000	0.521843	1.000000	
610.988478	0.600000	10000	0.514440	1.000000	
643.482841	0.600000	10000	0.506903	1.000000	
675.557654	0.600000	10000	0.499187	1.000000	
707.172539	0.600000	10000	0.491244	1.000000	
738.272538	0.600000	10000	0.483012	1.000000	
768.760561	0.600000	10000	0.474390	1.000000	
798.550519	0.600000	10000	0.465263	1.000000	
827.498221	0.600000	10000	0.455447	1.000000	
855.382949	0.600000	10000	0.444644	1.000000	
881.786426	0.600000	10000	0.432282	1.000000	
905.930190	0.600000	10000	0.417240	1.000000	
925.306700	0.600000	10000	0.395886	1.000000	
NaN	0.600000	10000	NaN	1.000000	
NaN	0.600000	10000	NaN	1.000000	
NaN	0.600000	10000	NaN	1.000000	
236.616312	0.780000	10000	0.601054	1.000000	
271.869251	0.780000	10000	0.592753	1.000000	
307.001700	0.780000	10000	0.584847	1.000000	
341.998701	0.780000	10000	0.577221	1.000000	
376.844044	0.780000	10000	0.569789	1.000000	
411.520323	0.780000	10000	0.562488	1.000000	
446.008945	0.780000	10000	0.555269	1.000000	
480.281465	0.780000	10000	0.548091	1.000000	
514.320672	0.780000	10000	0.540915	1.000000	
548.105145	0.780000	10000	0.533709	1.000000	
581.602926	0.780000	10000	0.526441	1.000000	
614.777998	0.780000	10000	0.519075	1.000000	
647.611019	0.780000	10000	0.511580	1.000000	
680.038563	0.780000	10000	0.503906	1.000000	
712.036205	0.780000	10000	0.496012	1.000000	
743.536199	0.780000	10000	0.487830	1.000000	
774.459920	0.780000	10000	0.479266	1.000000	
804.721056	0.780000	10000	0.470208	1.000000	
834.181357	0.780000	10000	0.460472	1.000000	
862.636211	0.780000	10000	0.449772	1.000000	
889.704812	0.780000	10000	0.437564	1.000000	
914.665944	0.780000	10000	0.422772	1.000000	
935.312181	0.780000	10000	0.402065	1.000000	
NaN	0.780000	10000	NaN	1.000000	
NaN	0.780000	10000	NaN	1.000000	
NaN	0.780000	10000	NaN	1.000000	
230.316328	0.240000	20000	0.578904	1.000000	
264.475834	0.240000	20000	0.570506	1.000000	
298.470036	0.240000	20000	0.562492	1.000000	
332.279938	0.240000	20000	0.554748	1.000000	
365.885088	0.240000	20000	0.547188	1.000000	
399.261818	0.240000	20000	0.539751	1.000000	
432.379283	0.240000	20000	0.532386	1.000000	
465.218910	0.240000	20000	0.525050	1.000000	
497.754463	0.240000	20000	0.517706	1.000000	
529.950260	0.240000	20000	0.510321	1.000000	
561.765019	0.240000	20000	0.502860	1.000000	
593.180495	0.240000	20000	0.495294	1.000000	
624.125586	0.240000	20000	0.487576	1.000000	
654.582879	0.240000	20000	0.479676	1.000000	
684.460682	0.240000	20000	0.471525	1.000000	
713.709265	0.240000	20000	0.463065	1.000000	
742.233827	0.240000	20000	0.454202	1.000000	
769.903498	0.240000	20000	0.444800	1.000000	
796.532564	0.240000	20000	0.434654	1.000000	
821.838167	0.240000	20000	0.423436	1.000000	
845.322990	0.240000	20000	0.410553	1.000000	
865.836057	0.240000	20000	0.394621	1.000000	
879.539907	0.240000	20000	0.370932	1.000000	
NaN	0.240000	20000	NaN	1.000000	
NaN	0.240000	20000	NaN	1.000000	
NaN	0.240000	20000	NaN	1.000000	
230.870967	0.400000	20000	0.580745	1.000000	
265.125857	0.400000	20000	0.572353	1.000000	
299.218941	0.400000	20000	0.564347	1.000000	
333.131489	0.400000	20000	0.556609	1.000000	
366.843323	0.400000	20000	0.549058	1.000000	
400.332026	0.400000	20000	0.541628	1.000000	
433.565438	0.400000	20000	0.534273	1.000000	
466.525965	0.400000	20000	0.526945	1.000000	
499.187664	0.400000	20000	0.519611	1.000000	
531.516911	0.400000	20000	0.512237	1.000000	
563.469791	0.400000	20000	0.504787	1.000000	
595.029636	0.400000	20000	0.497232	1.000000	
626.128523	0.400000	20000	0.489527	1.000000	
656.747362	0.400000	20000	0.481641	1.000000	
686.792606	0.400000	20000	0.473503	1.000000	
716.220847	0.400000	20000	0.465059	1.000000	
744.935990	0.400000	20000	0.456214	1.000000	
772.809174	0.400000	20000	0.446832	1.000000	
799.657731	0.400000	20000	0.436710	1.000000	
825.203714	0.400000	20000	0.425521	1.000000	
848.969050	0.400000	20000	0.412686	1.000000	
869.824554	0.400000	20000	0.396831	1.000000	
884.072851	0.400000	20000	0.373356	1.000000	
NaN	0.400000	20000	NaN	1.000000	
NaN	0.400000	20000	NaN	1.000000	
NaN	0.400000	20000	NaN	1.000000	
231.913475	0.600000	20000	0.584282	1.000000	
266.348031	0.600000	20000	0.575902	1.000000	
300.627547	0.600000	20000	0.567909	1.000000	
334.733822	0.600000	20000	0.560187	1.000000	
368.647232	0.600000	20000	0.552651	1.000000	
402.346827	0.600000	20000	0.545238	1.000000	
435.800853	0.600000	20000	0.537901	1.000000	
468.990711	0.600000	20000	0.530592	1.000000	
501.892019	0.600000	20000	0.523278	1.000000	
534.475196	0.600000	20000	0.515925	1.000000	
566.691212	0.600000	20000	0.508498	1.000000	
598.526491	0.600000	20000	0.500966	1.000000	
629.919363	0.600000	20000	0.493288	1.000000	
660.842459	0.600000	20000	0.485427	1.000000	
691.213627	0.600000	20000	0.477319	1.000000	
720.986870	0.600000	20000	0.468908	1.000000	
750.068549	0.600000	20000	0.460099	1.000000	
778.333741	0.600000	20000	0.450759	1.000000	
805.605735	0.600000	20000	0.440686	1.000000	
831.616175	0.600000	20000	0.429557	1.000000	
855.921293	0.600000	20000	0.416817	1.000000	
877.445124	0.600000	20000	0.401125	1.000000	
892.755041	0.600000	20000	0.378093	1.000000	
NaN	0.600000	20000	NaN	1.000000	
NaN	0.600000	20000	NaN	1.000000	
NaN	0.600000	20000	NaN	1.000000	
233.134161	0.780000	20000	0.588563	1.000000	
267.779752	0.780000	20000	0.580200	1.000000	
302.278545	0.780000	20000	0.572225	1.000000	
336.613024	0.780000	20000	0.564522	1.000000	
370.764278	0.780000	20000	0.557007	1.000000	
404.712088	0.780000	20000	0.549616	1.000000	
438.428531	0.780000	20000	0.542301	1.000000	
471.890549	0.780000	20000	0.535018	1.000000	
505.076797	0.780000	20000	0.527731	1.000000	
537.961177	0.780000	20000	0.520406	1.000000	
570.493025	0.780000	20000	0.513008	1.000000	
602.657995	0.780000	20000	0.505507	1.000000	
634.403755	0.780000	20000	0.497863	1.000000	
665.692318	0.780000	20000	0.490036	1.000000	
696.456874	0.780000	20000	0.481968	1.000000	
726.647104	0.780000	20000	0.473600	1.000000	
756.172825	0.780000	20000	0.464840	1.000000	
784.906891	0.780000	20000	0.455551	1.000000	
812.701376	0.780000	20000	0.445549	1.000000	
839.278429	0.780000	20000	0.434500	1.000000	
864.221967	0.780000	20000	0.421862	1.000000	
886.557165	0.780000	20000	0.406375	1.000000	
903.210848	0.780000	20000	0.383976	1.000000	
NaN	0.780000	20000	NaN	1.000000	
NaN	0.780000	20000	NaN	1.000000	
NaN	0.780000	20000	NaN	1.000000	
225.830885	0.240000	30000	0.565360	1.000000	
259.218805	0.240000	30000	0.556908	1.000000	
292.412823	0.240000	30000	0.548834	1.000000	
325.391660	0.240000	30000	0.541023	1.000000	
358.132454	0.240000	30000	0.533391	1.000000	
390.603118	0.240000	30000	0.525876	1.000000	
422.779573	0.240000	30000	0.518424	1.000000	
454.636664	0.240000	30000	0.510995	1.000000	
486.145397	0.240000	30000	0.503552	1.000000	
517.256456	0.240000	30000	0.496060	1.000000	
547.942515	0.240000	30000	0.488486	1.000000	
578.166324	0.240000	30000	0.480798	1.000000	
607.861915	0.240000	30000	0.472953	1.000000	
636.994313	0.240000	30000	0.464912	1.000000	
665.487454	0.240000	30000	0.456618	1.000000	
693.252634	0.240000	30000	0.447997	1.000000	
720.198328	0.240000	30000	0.438958	1.000000	
746.175971	0.240000	30000	0.429361	1.000000	
770.973526	0.240000	30000	0.418996	1.000000	
794.266367	0.240000	30000	0.407523	1.000000	
815.422517	0.240000	30000	0.394277	1.000000	
833.110149	0.240000	30000	0.377815	1.000000	
842.389982	0.240000	30000	0.352735	1.000000	
NaN	0.240000	30000	NaN	1.000000	
NaN	0.240000	30000	NaN	1.000000	
NaN	0.240000	30000	NaN	1.000000	
226.418283	0.400000	30000	0.567148	1.000000	
259.906355	0.400000	30000	0.558700	1.000000	
293.203816	0.400000	30000	0.550632	1.000000	
326.289596	0.400000	30000	0.542826	1.000000	
359.141046	0.400000	30000	0.535200	1.000000	
391.727182	0.400000	30000	0.527691	1.000000	
424.022687	0.400000	30000	0.520246	1.000000	
456.003265	0.400000	30000	0.512824	1.000000	
487.640155	0.400000	30000	0.505389	1.000000	
518.885826	0.400000	30000	0.497905	1.000000	
549.710607	0.400000	30000	0.490339	1.000000	
580.080413	0.400000	30000	0.482660	1.000000	
609.926645	0.400000	30000	0.474824	1.000000	
639.218217	0.400000	30000	0.466794	1.000000	
667.875737	0.400000	30000	0.458510	1.000000	
695.815912	0.400000	30000	0.449901	1.000000	
722.946170	0.400000	30000	0.440875	1.000000	
749.119768	0.400000	30000	0.431293	1.000000	
774.127443	0.400000	30000	0.420945	1.000000	
797.649055	0.400000	30000	0.409492	1.000000	
819.069454	0.400000	30000	0.396280	1.000000	
837.076711	0.400000	30000	0.379872	1.000000	
846.908317	0.400000	30000	0.354998	1.000000	
NaN	0.400000	30000	NaN	1.000000	
NaN	0.400000	30000	NaN	1.000000	
NaN	0.400000	30000	NaN	1.000000	
227.532335	0.600000	30000	0.570592	1.000000	
261.210715	0.600000	30000	0.562154	1.000000	
294.704900	0.600000	30000	0.554096	1.000000	
327.994238	0.600000	30000	0.546302	1.000000	
361.056524	0.600000	30000	0.538688	1.000000	
393.862954	0.600000	30000	0.531192	1.000000	
426.385791	0.600000	30000	0.523762	1.000000	
458.602444	0.600000	30000	0.516354	1.000000	
490.484620	0.600000	30000	0.508934	1.000000	
521.988347	0.600000	30000	0.501467	1.000000	
553.079297	0.600000	30000	0.493919	1.000000	
583.729690	0.600000	30000	0.486259	1.000000	
613.865681	0.600000	30000	0.478441	1.000000	
643.463945	0.600000	30000	0.470432	1.000000	
672.438413	0.600000	30000	0.462169	1.000000	
700.716596	0.600000	30000	0.453584	1.000000	
728.203783	0.600000	30000	0.444585	1.000000	
754.756808	0.600000	30000	0.435034	1.000000	
780.171842	0.600000	30000	0.424722	1.000000	
804.137529	0.600000	30000	0.413312	1.000000	
826.072066	0.600000	30000	0.400170	1.000000	
844.702495	0.600000	30000	0.383874	1.000000	
855.566377	0.600000	30000	0.359370	1.000000	
NaN	0.600000	30000	NaN	1.000000	
NaN	0.600000	30000	NaN	1.000000	
NaN	0.600000	30000	NaN	1.000000	
228.854483	0.780000	30000	0.574781	1.000000	
262.759361	0.780000	30000	0.566357	1.000000	
296.487965	0.780000	30000	0.558313	1.000000	
330.020195	0.780000	30000	0.550534	1.000000	
363.334424	0.780000	30000	0.542937	1.000000	
396.404606	0.780000	30000	0.535457	1.000000	
429.200008	0.780000	30000	0.528046	1.000000	
461.700196	0.780000	30000	0.520658	1.000000	
493.877490	0.780000	30000	0.513259	1.000000	
525.692433	0.780000	30000	0.505814	1.000000	
557.104837	0.780000	30000	0.498288	1.000000	
588.093955	0.780000	30000	0.490653	1.000000	
618.582182	0.780000	30000	0.482861	1.000000	
648.553176	0.780000	30000	0.474881	1.000000	
677.913291	0.780000	30000	0.466645	1.000000	
706.603813	0.780000	30000	0.458093	1.000000	
734.527248	0.780000	30000	0.449131	1.000000	
761.544890	0.780000	30000	0.439621	1.000000	
787.459691	0.780000	30000	0.429356	1.000000	
811.971238	0.780000	30000	0.418005	1.000000	
834.539908	0.780000	30000	0.404958	1.000000	
853.941309	0.780000	30000	0.388814	1.000000	
866.020564	0.780000	30000	0.364727	1.000000	
NaN	0.780000	30000	NaN	1.000000	
NaN	0.780000	30000	NaN	1.000000	
NaN	0.780000	30000	NaN	1.000000	
221.656492	0.240000	37500	0.553592	1.000000	
254.329338	0.240000	37500	0.545094	1.000000	
286.783048	0.240000	37500	0.536969	1.000000	
318.994431	0.240000	37500	0.529100	1.000000	
350.938052	0.240000	37500	0.521405	1.000000	
382.576754	0.240000	37500	0.513820	1.000000	
413.889707	0.240000	37500	0.506293	1.000000	
444.847072	0.240000	37500	0.498781	1.000000	
475.417451	0.240000	37500	0.491250	1.000000	
505.540808	0.240000	37500	0.483662	1.000000	
535.199685	0.240000	37500	0.475988	1.000000	
564.340195	0.240000	37500	0.468191	1.000000	
592.905626	0.240000	37500	0.460231	1.000000	
620.841123	0.240000	37500	0.452066	1.000000	
648.082552	0.240000	37500	0.443644	1.000000	
674.511669	0.240000	37500	0.434880	1.000000	
700.037366	0.240000	37500	0.425688	1.000000	
724.495293	0.240000	37500	0.415924	1.000000	
747.650003	0.240000	37500	0.405372	1.000000	
769.139855	0.240000	37500	0.393688	1.000000	
788.223110	0.240000	37500	0.380161	1.000000	
803.408771	0.240000	37500	0.363311	1.000000	
808.687773	0.240000	37500	0.337148	1.000000	
NaN	0.240000	37500	NaN	1.000000	
NaN	0.240000	37500	NaN	1.000000	
NaN	0.240000	37500	NaN	1.000000	
222.262891	0.400000	37500	0.555340	1.000000	
255.038509	0.400000	37500	0.546846	1.000000	
287.598097	0.400000	37500	0.538725	1.000000	
319.918632	0.400000	37500	0.530861	1.000000	
351.975393	0.400000	37500	0.523170	1.000000	
383.730562	0.400000	37500	0.515591	1.000000	
415.163817	0.400000	37500	0.508069	1.000000	
446.245525	0.400000	37500	0.500563	1.000000	
476.944483	0.400000	37500	0.493038	1.000000	
507.202212	0.400000	37500	0.485457	1.000000	
536.999202	0.400000	37500	0.477789	1.000000	
566.284310	0.400000	37500	0.469999	1.000000	
594.998580	0.400000	37500	0.462047	1.000000	
623.090507	0.400000	37500	0.453890	1.000000	
650.493159	0.400000	37500	0.445476	1.000000	
677.092966	0.400000	37500	0.436721	1.000000	
702.798013	0.400000	37500	0.427539	1.000000	
727.445646	0.400000	37500	0.417786	1.000000	
750.803009	0.400000	37500	0.407248	1.000000	
772.512652	0.400000	37500	0.395579	1.000000	
791.847870	0.400000	37500	0.382078	1.000000	
807.336239	0.400000	37500	0.365268	1.000000	
813.125039	0.400000	37500	0.339256	1.000000	
NaN	0.400000	37500	NaN	1.000000	
NaN	0.400000	37500	NaN	1.000000	
NaN	0.400000	37500	NaN	1.000000	
223.420023	0.600000	37500	0.558715	1.000000	
256.392071	0.600000	37500	0.550229	1.000000	
289.154170	0.600000	37500	0.542117	1.000000	
321.683636	0.600000	37500	0.534262	1.000000	
353.956106	0.600000	37500	0.526581	1.000000	
385.935691	0.600000	37500	0.519013	1.000000	
417.599846	0.600000	37500	0.511502	1.000000	
448.920442	0.600000	37500	0.504008	1.000000	
479.866668	0.600000	37500	0.496496	1.000000	
510.383164	0.600000	37500	0.488928	1.000000	
540.446310	0.600000	37500	0.481274	1.000000	
570.010469	0.600000	37500	0.473499	1.000000	
599.012156	0.600000	37500	0.465562	1.000000	
627.406603	0.600000	37500	0.457422	1.000000	
655.121201	0.600000	37500	0.449024	1.000000	
682.051773	0.600000	37500	0.440289	1.000000	
708.104715	0.600000	37500	0.431128	1.000000	
733.120704	0.600000	37500	0.421399	1.000000	
756.871963	0.600000	37500	0.410889	1.000000	
779.009258	0.600000	37500	0.399253	1.000000	
798.835761	0.600000	37500	0.385805	1.000000	
814.915477	0.600000	37500	0.369078	1.000000	
821.707341	0.600000	37500	0.343380	1.000000	
NaN	0.600000	37500	NaN	1.000000	
NaN	0.600000	37500	NaN	1.000000	
NaN	0.600000	37500	NaN	1.000000	
224.806103	0.780000	37500	0.562836	1.000000	
258.014034	0.780000	37500	0.554360	1.000000	
291.019574	0.780000	37500	0.546259	1.000000	
323.800492	0.780000	37500	0.538417	1.000000	
356.332898	0.780000	37500	0.530750	1.000000	
388.583379	0.780000	37500	0.523195	1.000000	
420.526577	0.780000	37500	0.515700	1.000000	
452.136293	0.780000	37500	0.508222	1.000000	
483.382230	0.780000	37500	0.500726	1.000000	
514.213038	0.780000	37500	0.493177	1.000000	
544.599816	0.780000	37500	0.485541	1.000000	
574.504024	0.780000	37500	0.477787	1.000000	
603.856300	0.780000	37500	0.469870	1.000000	
632.620580	0.780000	37500	0.461753	1.000000	
660.716848	0.780000	37500	0.453377	1.000000	
688.053042	0.780000	37500	0.444668	1.000000	
714.533277	0.780000	37500	0.435536	1.000000	
740.002390	0.780000	37500	0.425839	1.000000	
764.238947	0.780000	37500	0.415366	1.000000	
786.903972	0.780000	37500	0.403775	1.000000	
807.338635	0.780000	37500	0.390398	1.000000	
824.152431	0.780000	37500	0.373785	1.000000	
832.202312	0.780000	37500	0.348516	1.000000	
NaN	0.780000	37500	NaN	1.000000	
NaN	0.780000	37500	NaN	1.000000	
NaN	0.780000	37500	NaN	1.000000	
