VARIABLES = "powerdemand", "mach", "altitude", "heat", 
ZONE T = "FCmapR2_Drag", I = 26, J = 4, K = 5 
237.167239	0.240000	-1	87.296752	1.000000	
272.517582	0.240000	-1	102.959537	1.000000	
307.752347	0.240000	-1	119.121622	1.000000	
342.857166	0.240000	-1	135.771744	1.000000	
377.816473	0.240000	-1	155.256431	1.000000	
412.613544	0.240000	-1	176.776915	1.000000	
447.230516	0.240000	-1	199.457030	1.000000	
481.640331	0.240000	-1	223.371286	1.000000	
515.825941	0.240000	-1	248.530944	1.000000	
549.766986	0.240000	-1	274.969157	1.000000	
583.433164	0.240000	-1	302.768392	1.000000	
616.789073	0.240000	-1	332.030635	1.000000	
649.817007	0.240000	-1	362.776308	1.000000	
682.454985	0.240000	-1	395.224160	1.000000	
714.680681	0.240000	-1	429.419897	1.000000	
746.427663	0.240000	-1	465.602190	1.000000	
777.621864	0.240000	-1	504.044209	1.000000	
808.179697	0.240000	-1	545.069417	1.000000	
837.968400	0.240000	-1	589.219685	1.000000	
866.791531	0.240000	-1	637.328484	1.000000	
894.285807	0.240000	-1	690.979240	1.000000	
919.759032	0.240000	-1	753.264805	1.000000	
941.105961	0.240000	-1	833.710140	1.000000	
NaN	0.240000	-1	NaN	1.000000	
NaN	0.240000	-1	NaN	1.000000	
NaN	0.240000	-1	NaN	1.000000	
237.618556	0.400000	-1	87.081063	1.000000	
273.047821	0.400000	-1	102.711270	1.000000	
308.365007	0.400000	-1	118.841102	1.000000	
343.556092	0.400000	-1	135.459411	1.000000	
378.605869	0.400000	-1	154.359831	1.000000	
413.497992	0.400000	-1	175.782346	1.000000	
448.214983	0.400000	-1	198.363587	1.000000	
482.731871	0.400000	-1	222.169806	1.000000	
517.029141	0.400000	-1	247.229001	1.000000	
551.088109	0.400000	-1	273.566640	1.000000	
584.881351	0.400000	-1	301.254307	1.000000	
618.369799	0.400000	-1	330.415630	1.000000	
651.539515	0.400000	-1	361.054122	1.000000	
684.328585	0.400000	-1	393.394074	1.000000	
716.716986	0.400000	-1	427.472590	1.000000	
748.633739	0.400000	-1	463.552644	1.000000	
780.014622	0.400000	-1	501.871293	1.000000	
810.774154	0.400000	-1	542.765816	1.000000	
840.782807	0.400000	-1	586.774052	1.000000	
869.849187	0.400000	-1	634.722717	1.000000	
897.632327	0.400000	-1	688.127497	1.000000	
923.459037	0.400000	-1	750.051210	1.000000	
945.356868	0.400000	-1	829.596863	1.000000	
NaN	0.400000	-1	NaN	1.000000	
NaN	0.400000	-1	NaN	1.000000	
NaN	0.400000	-1	NaN	1.000000	
238.451180	0.600000	-1	86.650165	1.000000	
274.026354	0.600000	-1	102.215097	1.000000	
309.496061	0.600000	-1	118.280220	1.000000	
344.846949	0.600000	-1	134.834606	1.000000	
380.064518	0.600000	-1	152.663392	1.000000	
415.133154	0.600000	-1	173.797965	1.000000	
450.036137	0.600000	-1	196.180468	1.000000	
484.752426	0.600000	-1	219.769135	1.000000	
519.257973	0.600000	-1	244.625523	1.000000	
553.537246	0.600000	-1	270.759651	1.000000	
587.567989	0.600000	-1	298.222592	1.000000	
621.305191	0.600000	-1	327.177160	1.000000	
654.738322	0.600000	-1	357.610460	1.000000	
687.814512	0.600000	-1	389.716515	1.000000	
720.509615	0.600000	-1	423.554945	1.000000	
752.746958	0.600000	-1	459.424586	1.000000	
784.481076	0.600000	-1	497.489312	1.000000	
815.622999	0.600000	-1	538.114331	1.000000	
846.049456	0.600000	-1	581.829224	1.000000	
875.578795	0.600000	-1	629.446868	1.000000	
903.912907	0.600000	-1	682.345060	1.000000	
930.408606	0.600000	-1	743.555529	1.000000	
953.290359	0.600000	-1	821.601093	1.000000	
NaN	0.600000	-1	NaN	1.000000	
NaN	0.600000	-1	NaN	1.000000	
NaN	0.600000	-1	NaN	1.000000	
239.400012	0.780000	-1	86.099830	1.000000	
275.141940	0.780000	-1	101.581049	1.000000	
310.786191	0.780000	-1	117.563027	1.000000	
346.320231	0.780000	-1	134.035096	1.000000	
381.730424	0.780000	-1	151.020009	1.000000	
417.002062	0.780000	-1	171.269077	1.000000	
452.119360	0.780000	-1	193.395666	1.000000	
487.065428	0.780000	-1	216.706326	1.000000	
521.812456	0.780000	-1	241.297081	1.000000	
556.347262	0.780000	-1	267.166645	1.000000	
590.649109	0.780000	-1	294.363675	1.000000	
624.681274	0.780000	-1	323.020416	1.000000	
658.422203	0.780000	-1	353.183901	1.000000	
691.834784	0.780000	-1	384.981694	1.000000	
724.881339	0.780000	-1	418.544040	1.000000	
757.505165	0.780000	-1	454.091965	1.000000	
789.656537	0.780000	-1	491.818431	1.000000	
821.251424	0.780000	-1	532.083407	1.000000	
852.174202	0.780000	-1	575.405535	1.000000	
882.255068	0.780000	-1	622.579339	1.000000	
911.223901	0.780000	-1	674.913482	1.000000	
938.501527	0.780000	-1	735.273095	1.000000	
962.574159	0.780000	-1	811.292788	1.000000	
NaN	0.780000	-1	NaN	1.000000	
NaN	0.780000	-1	NaN	1.000000	
NaN	0.780000	-1	NaN	1.000000	
234.073266	0.240000	10000	88.316187	1.000000	
268.883690	0.240000	10000	104.131999	1.000000	
303.555019	0.240000	10000	120.445163	1.000000	
338.070588	0.240000	10000	138.668675	1.000000	
372.412396	0.240000	10000	159.507950	1.000000	
406.561189	0.240000	10000	181.486990	1.000000	
440.491092	0.240000	10000	204.655442	1.000000	
474.178809	0.240000	10000	229.044132	1.000000	
507.604586	0.240000	10000	254.667963	1.000000	
540.743530	0.240000	10000	281.568629	1.000000	
573.548580	0.240000	10000	309.878798	1.000000	
606.003675	0.240000	10000	339.600026	1.000000	
638.061578	0.240000	10000	370.862292	1.000000	
669.683039	0.240000	10000	403.764608	1.000000	
700.807749	0.240000	10000	438.486123	1.000000	
731.386214	0.240000	10000	475.171722	1.000000	
761.330421	0.240000	10000	514.112428	1.000000	
790.522734	0.240000	10000	555.715890	1.000000	
818.822356	0.240000	10000	600.492867	1.000000	
845.967815	0.240000	10000	649.420861	1.000000	
871.557435	0.240000	10000	704.050194	1.000000	
894.679349	0.240000	10000	767.948195	1.000000	
912.477012	0.240000	10000	852.435696	1.000000	
NaN	0.240000	10000	NaN	1.000000	
NaN	0.240000	10000	NaN	1.000000	
NaN	0.240000	10000	NaN	1.000000	
234.580634	0.400000	10000	88.141791	1.000000	
269.479070	0.400000	10000	103.931542	1.000000	
304.241985	0.400000	10000	120.219029	1.000000	
338.853026	0.400000	10000	138.017233	1.000000	
373.294519	0.400000	10000	158.779132	1.000000	
407.547548	0.400000	10000	180.680307	1.000000	
441.587913	0.400000	10000	203.764403	1.000000	
475.390423	0.400000	10000	228.074675	1.000000	
508.936656	0.400000	10000	253.620432	1.000000	
542.202077	0.400000	10000	280.443588	1.000000	
575.142491	0.400000	10000	308.668379	1.000000	
607.737976	0.400000	10000	338.313298	1.000000	
639.946599	0.400000	10000	369.489889	1.000000	
671.724466	0.400000	10000	402.317303	1.000000	
703.018059	0.400000	10000	436.952291	1.000000	
733.776004	0.400000	10000	473.549301	1.000000	
763.907191	0.400000	10000	512.414900	1.000000	
793.304707	0.400000	10000	553.924139	1.000000	
821.826590	0.400000	10000	598.599199	1.000000	
849.225198	0.400000	10000	647.381043	1.000000	
875.093243	0.400000	10000	701.863380	1.000000	
898.564149	0.400000	10000	765.497130	1.000000	
916.899874	0.400000	10000	849.318232	1.000000	
NaN	0.400000	10000	NaN	1.000000	
NaN	0.400000	10000	NaN	1.000000	
NaN	0.400000	10000	NaN	1.000000	
235.525346	0.600000	10000	87.790083	1.000000	
270.588021	0.600000	10000	103.527125	1.000000	
305.522011	0.600000	10000	119.762612	1.000000	
340.311580	0.600000	10000	136.968702	1.000000	
374.939705	0.600000	10000	157.311132	1.000000	
409.388135	0.600000	10000	179.054513	1.000000	
443.635886	0.600000	10000	201.967367	1.000000	
477.654218	0.600000	10000	226.118100	1.000000	
511.427258	0.600000	10000	251.504679	1.000000	
544.931193	0.600000	10000	278.169454	1.000000	
578.127362	0.600000	10000	306.219449	1.000000	
610.988478	0.600000	10000	335.707639	1.000000	
643.482841	0.600000	10000	366.707993	1.000000	
675.557654	0.600000	10000	399.380721	1.000000	
707.172539	0.600000	10000	433.836854	1.000000	
738.272538	0.600000	10000	470.250344	1.000000	
768.760561	0.600000	10000	508.959540	1.000000	
798.550519	0.600000	10000	550.272811	1.000000	
827.498221	0.600000	10000	594.735646	1.000000	
855.382949	0.600000	10000	643.214084	1.000000	
881.786426	0.600000	10000	697.390472	1.000000	
905.930190	0.600000	10000	760.476679	1.000000	
925.306700	0.600000	10000	842.922059	1.000000	
NaN	0.600000	10000	NaN	1.000000	
NaN	0.600000	10000	NaN	1.000000	
NaN	0.600000	10000	NaN	1.000000	
236.616312	0.780000	10000	87.334732	1.000000	
271.869251	0.780000	10000	103.003246	1.000000	
307.001700	0.780000	10000	119.171000	1.000000	
341.998701	0.780000	10000	135.826711	1.000000	
376.844044	0.780000	10000	155.414421	1.000000	
411.520323	0.780000	10000	176.952125	1.000000	
446.008945	0.780000	10000	199.649607	1.000000	
480.281465	0.780000	10000	223.582824	1.000000	
514.320672	0.780000	10000	248.760094	1.000000	
548.105145	0.780000	10000	275.215924	1.000000	
581.602926	0.780000	10000	303.034686	1.000000	
614.777998	0.780000	10000	332.314568	1.000000	
647.611019	0.780000	10000	363.080148	1.000000	
680.038563	0.780000	10000	395.545631	1.000000	
712.036205	0.780000	10000	429.761800	1.000000	
743.536199	0.780000	10000	465.961878	1.000000	
774.459920	0.780000	10000	504.425357	1.000000	
804.721056	0.780000	10000	545.473281	1.000000	
834.181357	0.780000	10000	589.648223	1.000000	
862.636211	0.780000	10000	637.784830	1.000000	
889.704812	0.780000	10000	691.478368	1.000000	
914.665944	0.780000	10000	753.826912	1.000000	
935.312181	0.780000	10000	834.429095	1.000000	
NaN	0.780000	10000	NaN	1.000000	
NaN	0.780000	10000	NaN	1.000000	
NaN	0.780000	10000	NaN	1.000000	
230.316328	0.240000	20000	89.178595	1.000000	
264.475834	0.240000	20000	105.122492	1.000000	
298.470036	0.240000	20000	122.025514	1.000000	
332.279938	0.240000	20000	141.900763	1.000000	
365.885088	0.240000	20000	163.119848	1.000000	
399.261818	0.240000	20000	185.488428	1.000000	
432.379283	0.240000	20000	209.059329	1.000000	
465.218910	0.240000	20000	233.828424	1.000000	
497.754463	0.240000	20000	259.829307	1.000000	
529.950260	0.240000	20000	287.131404	1.000000	
561.765019	0.240000	20000	315.821404	1.000000	
593.180495	0.240000	20000	345.905507	1.000000	
624.125586	0.240000	20000	377.573854	1.000000	
654.582879	0.240000	20000	410.837904	1.000000	
684.460682	0.240000	20000	445.955854	1.000000	
713.709265	0.240000	20000	483.055348	1.000000	
742.233827	0.240000	20000	522.416347	1.000000	
769.903498	0.240000	20000	564.444240	1.000000	
796.532564	0.240000	20000	609.737994	1.000000	
821.838167	0.240000	20000	659.240078	1.000000	
845.322990	0.240000	20000	714.644453	1.000000	
865.836057	0.240000	20000	779.920479	1.000000	
879.539907	0.240000	20000	868.459249	1.000000	
NaN	0.240000	20000	NaN	1.000000	
NaN	0.240000	20000	NaN	1.000000	
NaN	0.240000	20000	NaN	1.000000	
230.870967	0.400000	20000	89.044897	1.000000	
265.125857	0.400000	20000	104.969028	1.000000	
299.218941	0.400000	20000	121.671323	1.000000	
333.131489	0.400000	20000	141.398583	1.000000	
366.843323	0.400000	20000	162.559124	1.000000	
400.332026	0.400000	20000	184.864735	1.000000	
433.565438	0.400000	20000	208.377019	1.000000	
466.525965	0.400000	20000	233.087991	1.000000	
499.187664	0.400000	20000	259.031456	1.000000	
531.516911	0.400000	20000	286.270965	1.000000	
563.469791	0.400000	20000	314.905192	1.000000	
595.029636	0.400000	20000	344.934672	1.000000	
626.128523	0.400000	20000	376.542042	1.000000	
656.747362	0.400000	20000	409.744913	1.000000	
686.792606	0.400000	20000	444.810976	1.000000	
716.220847	0.400000	20000	481.848985	1.000000	
744.935990	0.400000	20000	521.146591	1.000000	
772.809174	0.400000	20000	563.107647	1.000000	
799.657731	0.400000	20000	608.328609	1.000000	
825.203714	0.400000	20000	657.747733	1.000000	
848.969050	0.400000	20000	713.016830	1.000000	
869.824554	0.400000	20000	778.083202	1.000000	
884.072851	0.400000	20000	866.036941	1.000000	
NaN	0.400000	20000	NaN	1.000000	
NaN	0.400000	20000	NaN	1.000000	
NaN	0.400000	20000	NaN	1.000000	
231.913475	0.600000	20000	88.772717	1.000000	
266.348031	0.600000	20000	104.656503	1.000000	
300.627547	0.600000	20000	121.036528	1.000000	
334.733822	0.600000	20000	140.377493	1.000000	
368.647232	0.600000	20000	161.418452	1.000000	
402.346827	0.600000	20000	183.600028	1.000000	
435.800853	0.600000	20000	206.987422	1.000000	
468.990711	0.600000	20000	231.579077	1.000000	
501.892019	0.600000	20000	257.404447	1.000000	
534.475196	0.600000	20000	284.515014	1.000000	
566.691212	0.600000	20000	313.034033	1.000000	
598.526491	0.600000	20000	342.950432	1.000000	
629.919363	0.600000	20000	374.431389	1.000000	
660.842459	0.600000	20000	407.523962	1.000000	
691.213627	0.600000	20000	442.465019	1.000000	
720.986870	0.600000	20000	479.374795	1.000000	
750.068549	0.600000	20000	518.539977	1.000000	
778.333741	0.600000	20000	560.361247	1.000000	
805.605735	0.600000	20000	605.429857	1.000000	
831.616175	0.600000	20000	654.675329	1.000000	
855.921293	0.600000	20000	709.674630	1.000000	
877.445124	0.600000	20000	774.292301	1.000000	
892.755041	0.600000	20000	861.031709	1.000000	
NaN	0.600000	20000	NaN	1.000000	
NaN	0.600000	20000	NaN	1.000000	
NaN	0.600000	20000	NaN	1.000000	
233.134161	0.780000	20000	88.415409	1.000000	
267.779752	0.780000	20000	104.246026	1.000000	
302.278545	0.780000	20000	120.573766	1.000000	
336.613024	0.780000	20000	139.039647	1.000000	
370.764278	0.780000	20000	159.922866	1.000000	
404.712088	0.780000	20000	181.946090	1.000000	
438.428531	0.780000	20000	205.162364	1.000000	
471.890549	0.780000	20000	229.595456	1.000000	
505.076797	0.780000	20000	255.263445	1.000000	
537.961177	0.780000	20000	282.207896	1.000000	
570.493025	0.780000	20000	310.566247	1.000000	
602.657995	0.780000	20000	340.330465	1.000000	
634.403755	0.780000	20000	371.640956	1.000000	
665.692318	0.780000	20000	404.585344	1.000000	
696.456874	0.780000	20000	439.355438	1.000000	
726.647104	0.780000	20000	476.090717	1.000000	
756.172825	0.780000	20000	515.075263	1.000000	
784.906891	0.780000	20000	556.729616	1.000000	
812.701376	0.780000	20000	601.565653	1.000000	
839.278429	0.780000	20000	650.573459	1.000000	
864.221967	0.780000	20000	705.285028	1.000000	
886.557165	0.780000	20000	769.331221	1.000000	
903.210848	0.780000	20000	854.312191	1.000000	
NaN	0.780000	20000	NaN	1.000000	
NaN	0.780000	20000	NaN	1.000000	
NaN	0.780000	20000	NaN	1.000000	
225.830885	0.240000	30000	89.872402	1.000000	
259.218805	0.240000	30000	105.918294	1.000000	
292.412823	0.240000	30000	124.118840	1.000000	
325.391660	0.240000	30000	144.512806	1.000000	
358.132454	0.240000	30000	166.033388	1.000000	
390.603118	0.240000	30000	188.725239	1.000000	
422.779573	0.240000	30000	212.595908	1.000000	
454.636664	0.240000	30000	237.661116	1.000000	
486.145397	0.240000	30000	263.953329	1.000000	
517.256456	0.240000	30000	291.571862	1.000000	
547.942515	0.240000	30000	320.542233	1.000000	
578.166324	0.240000	30000	350.926030	1.000000	
607.861915	0.240000	30000	382.872171	1.000000	
636.994313	0.240000	30000	416.440140	1.000000	
665.487454	0.240000	30000	451.813632	1.000000	
693.252634	0.240000	30000	489.216020	1.000000	
720.198328	0.240000	30000	528.888302	1.000000	
746.175971	0.240000	30000	571.243599	1.000000	
770.973526	0.240000	30000	616.893457	1.000000	
794.266367	0.240000	30000	666.801358	1.000000	
815.422517	0.240000	30000	722.873153	1.000000	
833.110149	0.240000	30000	789.187178	1.000000	
842.389982	0.240000	30000	880.979539	1.000000	
NaN	0.240000	30000	NaN	1.000000	
NaN	0.240000	30000	NaN	1.000000	
NaN	0.240000	30000	NaN	1.000000	
226.418283	0.400000	30000	89.775878	1.000000	
259.906355	0.400000	30000	105.807641	1.000000	
293.203816	0.400000	30000	123.796575	1.000000	
326.289596	0.400000	30000	144.148831	1.000000	
359.141046	0.400000	30000	165.627717	1.000000	
391.727182	0.400000	30000	188.274966	1.000000	
424.022687	0.400000	30000	212.104396	1.000000	
456.003265	0.400000	30000	237.128985	1.000000	
487.640155	0.400000	30000	263.381358	1.000000	
518.885826	0.400000	30000	290.956737	1.000000	
549.710607	0.400000	30000	319.889037	1.000000	
580.080413	0.400000	30000	350.230828	1.000000	
609.926645	0.400000	30000	382.140933	1.000000	
639.218217	0.400000	30000	415.668006	1.000000	
667.875737	0.400000	30000	451.007340	1.000000	
695.815912	0.400000	30000	488.369227	1.000000	
722.946170	0.400000	30000	527.999988	1.000000	
749.119768	0.400000	30000	570.311691	1.000000	
774.127443	0.400000	30000	615.914178	1.000000	
797.649055	0.400000	30000	665.768092	1.000000	
819.069454	0.400000	30000	721.750496	1.000000	
837.076711	0.400000	30000	787.925119	1.000000	
846.908317	0.400000	30000	879.160998	1.000000	
NaN	0.400000	30000	NaN	1.000000	
NaN	0.400000	30000	NaN	1.000000	
NaN	0.400000	30000	NaN	1.000000	
227.532335	0.600000	30000	89.577665	1.000000	
261.210715	0.600000	30000	105.580351	1.000000	
294.704900	0.600000	30000	123.135537	1.000000	
327.994238	0.600000	30000	143.401978	1.000000	
361.056524	0.600000	30000	164.794978	1.000000	
393.862954	0.600000	30000	187.350248	1.000000	
426.385791	0.600000	30000	211.094508	1.000000	
458.602444	0.600000	30000	236.035088	1.000000	
490.484620	0.600000	30000	262.204937	1.000000	
521.988347	0.600000	30000	289.690800	1.000000	
553.079297	0.600000	30000	318.543960	1.000000	
583.729690	0.600000	30000	348.798332	1.000000	
613.865681	0.600000	30000	380.633239	1.000000	
643.463945	0.600000	30000	414.074913	1.000000	
672.438413	0.600000	30000	449.342682	1.000000	
700.716596	0.600000	30000	486.619733	1.000000	
728.203783	0.600000	30000	526.163417	1.000000	
754.756808	0.600000	30000	568.383617	1.000000	
780.171842	0.600000	30000	613.886629	1.000000	
804.137529	0.600000	30000	663.627180	1.000000	
826.072066	0.600000	30000	719.422519	1.000000	
844.702495	0.600000	30000	785.305812	1.000000	
855.566377	0.600000	30000	875.545653	1.000000	
NaN	0.600000	30000	NaN	1.000000	
NaN	0.600000	30000	NaN	1.000000	
NaN	0.600000	30000	NaN	1.000000	
228.854483	0.780000	30000	89.314032	1.000000	
262.759361	0.780000	30000	105.277917	1.000000	
296.487965	0.780000	30000	122.391006	1.000000	
330.020195	0.780000	30000	142.409872	1.000000	
363.334424	0.780000	30000	163.688124	1.000000	
396.404606	0.780000	30000	186.120280	1.000000	
429.200008	0.780000	30000	209.750290	1.000000	
461.700196	0.780000	30000	234.577926	1.000000	
493.877490	0.780000	30000	260.636565	1.000000	
525.692433	0.780000	30000	288.001548	1.000000	
557.104837	0.780000	30000	316.747484	1.000000	
588.093955	0.780000	30000	346.886285	1.000000	
618.582182	0.780000	30000	378.615640	1.000000	
648.553176	0.780000	30000	411.940816	1.000000	
677.913291	0.780000	30000	447.110465	1.000000	
706.603813	0.780000	30000	484.271224	1.000000	
734.527248	0.780000	30000	523.695323	1.000000	
761.544890	0.780000	30000	565.789691	1.000000	
787.459691	0.780000	30000	611.155810	1.000000	
811.971238	0.780000	30000	660.740362	1.000000	
834.539908	0.780000	30000	716.279575	1.000000	
853.941309	0.780000	30000	781.764806	1.000000	
866.020564	0.780000	30000	870.888484	1.000000	
NaN	0.780000	30000	NaN	1.000000	
NaN	0.780000	30000	NaN	1.000000	
NaN	0.780000	30000	NaN	1.000000	
221.656492	0.240000	37500	90.282882	1.000000	
254.329338	0.240000	37500	106.388627	1.000000	
286.783048	0.240000	37500	125.491915	1.000000	
318.994431	0.240000	37500	146.062617	1.000000	
350.938052	0.240000	37500	167.761633	1.000000	
382.576754	0.240000	37500	190.639603	1.000000	
413.889707	0.240000	37500	214.683850	1.000000	
444.847072	0.240000	37500	239.919582	1.000000	
475.417451	0.240000	37500	266.378582	1.000000	
505.540808	0.240000	37500	294.177347	1.000000	
535.199685	0.240000	37500	323.306105	1.000000	
564.340195	0.240000	37500	353.864317	1.000000	
592.905626	0.240000	37500	385.959361	1.000000	
620.841123	0.240000	37500	419.696140	1.000000	
648.082552	0.240000	37500	455.209789	1.000000	
674.511669	0.240000	37500	492.778436	1.000000	
700.037366	0.240000	37500	532.620818	1.000000	
724.495293	0.240000	37500	575.154446	1.000000	
747.650003	0.240000	37500	620.997961	1.000000	
769.139855	0.240000	37500	671.126618	1.000000	
788.223110	0.240000	37500	727.566151	1.000000	
803.408771	0.240000	37500	794.455058	1.000000	
808.687773	0.240000	37500	888.554526	1.000000	
NaN	0.240000	37500	NaN	1.000000	
NaN	0.240000	37500	NaN	1.000000	
NaN	0.240000	37500	NaN	1.000000	
222.262891	0.400000	37500	90.210433	1.000000	
255.038509	0.400000	37500	106.305642	1.000000	
287.598097	0.400000	37500	125.249269	1.000000	
319.918632	0.400000	37500	145.788856	1.000000	
351.975393	0.400000	37500	167.454774	1.000000	
383.730562	0.400000	37500	190.301797	1.000000	
415.163817	0.400000	37500	214.315626	1.000000	
446.245525	0.400000	37500	239.521527	1.000000	
476.944483	0.400000	37500	265.951406	1.000000	
507.202212	0.400000	37500	293.718755	1.000000	
536.999202	0.400000	37500	322.819978	1.000000	
566.284310	0.400000	37500	353.347909	1.000000	
594.998580	0.400000	37500	385.417188	1.000000	
623.090507	0.400000	37500	419.124779	1.000000	
650.493159	0.400000	37500	454.614294	1.000000	
677.092966	0.400000	37500	492.154302	1.000000	
702.798013	0.400000	37500	531.967425	1.000000	
727.445646	0.400000	37500	574.470407	1.000000	
750.803009	0.400000	37500	620.280657	1.000000	
772.512652	0.400000	37500	670.371386	1.000000	
791.847870	0.400000	37500	726.747469	1.000000	
807.336239	0.400000	37500	793.537015	1.000000	
813.125039	0.400000	37500	887.236280	1.000000	
NaN	0.400000	37500	NaN	1.000000	
NaN	0.400000	37500	NaN	1.000000	
NaN	0.400000	37500	NaN	1.000000	
223.420023	0.600000	37500	90.060813	1.000000	
256.392071	0.600000	37500	106.134225	1.000000	
289.154170	0.600000	37500	124.748566	1.000000	
321.683636	0.600000	37500	145.223785	1.000000	
353.956106	0.600000	37500	166.825510	1.000000	
385.935691	0.600000	37500	189.604051	1.000000	
417.599846	0.600000	37500	213.554761	1.000000	
448.920442	0.600000	37500	238.698692	1.000000	
479.866668	0.600000	37500	265.067997	1.000000	
510.383164	0.600000	37500	292.769926	1.000000	
540.446310	0.600000	37500	321.813710	1.000000	
570.010469	0.600000	37500	352.278419	1.000000	
599.012156	0.600000	37500	384.293786	1.000000	
627.406603	0.600000	37500	417.940273	1.000000	
655.121201	0.600000	37500	453.379126	1.000000	
682.051773	0.600000	37500	490.859031	1.000000	
708.104715	0.600000	37500	530.610693	1.000000	
733.120704	0.600000	37500	573.049261	1.000000	
756.871963	0.600000	37500	618.789572	1.000000	
779.009258	0.600000	37500	668.800573	1.000000	
798.835761	0.600000	37500	725.043647	1.000000	
814.915477	0.600000	37500	791.625144	1.000000	
821.707341	0.600000	37500	884.488420	1.000000	
NaN	0.600000	37500	NaN	1.000000	
NaN	0.600000	37500	NaN	1.000000	
NaN	0.600000	37500	NaN	1.000000	
224.806103	0.780000	37500	89.860073	1.000000	
258.014034	0.780000	37500	105.904162	1.000000	
291.019574	0.780000	37500	124.077666	1.000000	
323.800492	0.780000	37500	144.466308	1.000000	
356.332898	0.780000	37500	165.981569	1.000000	
388.583379	0.780000	37500	188.667731	1.000000	
420.526577	0.780000	37500	212.533141	1.000000	
452.136293	0.780000	37500	237.593172	1.000000	
483.382230	0.780000	37500	263.880309	1.000000	
514.213038	0.780000	37500	291.493347	1.000000	
544.599816	0.780000	37500	320.458872	1.000000	
574.504024	0.780000	37500	350.837325	1.000000	
603.856300	0.780000	37500	382.778884	1.000000	
632.620580	0.780000	37500	416.341656	1.000000	
660.716848	0.780000	37500	451.710810	1.000000	
688.053042	0.780000	37500	489.108055	1.000000	
714.533277	0.780000	37500	528.775067	1.000000	
740.002390	0.780000	37500	571.124830	1.000000	
764.238947	0.780000	37500	616.768677	1.000000	
786.903972	0.780000	37500	666.669727	1.000000	
807.338635	0.780000	37500	722.730166	1.000000	
824.152431	0.780000	37500	789.026477	1.000000	
832.202312	0.780000	37500	880.748058	1.000000	
NaN	0.780000	37500	NaN	1.000000	
NaN	0.780000	37500	NaN	1.000000	
NaN	0.780000	37500	NaN	1.000000	
